36
Lattice="10.210621920333747 0.0 0.0 5.105310960166873 8.842657971447272 0.0 0.0 0.0 22.08423447177455" Properties=species:S:1:pos:R:3:tags:I:1:energies:R:1:forces:R:3 energy=11.803882830757178 free_energy=11.803882830757178 stress="0.00459463850023521 -6.5936706885090596e-18 8.09254574236405e-18 -6.5936706885090596e-18 0.004594638500235087 -4.594964777311381e-17 8.09254574236405e-18 -4.594964777311381e-17 0.0026617390658105313" pbc="T T F"
Cu       0.00000000       1.47377633      10.00000000        2       0.35954887      -0.00000000       0.00657154       0.15155407
Cu       2.55265548       1.47377633      10.00000000        2       0.35963284       0.00036027       0.00020800       0.16012963
Cu       5.10531096       1.47377633      10.00000000        2       0.35965801      -0.00000000       0.00000751       0.16066004
Cu       7.65796644       1.47377633      10.00000000        2       0.35963284      -0.00036027       0.00020800       0.16012963
Cu       1.27632774       3.68444082      10.00000000        2       0.35965798       0.00002226       0.00021266       0.16041153
Cu       3.82898322       3.68444082      10.00000000        2       0.35965801       0.00000651      -0.00000376       0.16066004
Cu       6.38163870       3.68444082      10.00000000        2       0.35965801      -0.00000651      -0.00000376       0.16066004
Cu       8.93429418       3.68444082      10.00000000        2       0.35965798      -0.00002226       0.00021266       0.16041153
Cu       2.55265548       5.89510531      10.00000000        2       0.35965798      -0.00017304      -0.00012561       0.16041153
Cu       5.10531096       5.89510531      10.00000000        2       0.35963284      -0.00000000      -0.00041600       0.16012963
Cu       7.65796644       5.89510531      10.00000000        2       0.35965798       0.00017304      -0.00012561       0.16041153
Cu      10.21062192       5.89510531      10.00000000        2       0.35965801      -0.00000000      -0.00000000       0.16066952
Cu       3.82898322       8.10576981      10.00000000        2       0.35954887      -0.00569112      -0.00328577       0.15155407
Cu       6.38163870       8.10576981      10.00000000        2       0.35954887       0.00569112      -0.00328577       0.15155407
Cu       8.93429418       8.10576981      10.00000000        2       0.35965798       0.00019530      -0.00008705       0.16041153
Cu      11.48694966       8.10576981      10.00000000        2       0.35965798      -0.00019530      -0.00008705       0.16041153
Cu       0.00000000       0.00000000      12.08423447        1       0.65277999       0.00000000      -0.00000000      -0.23275845
Cu       2.55265548       0.00000000      12.08423447        1       0.36096457      -0.00636058       0.00000201      -0.14397184
Cu       5.10531096       0.00000000      12.08423447        1       0.35965609       0.00000000      -0.00000002      -0.16062292
Cu       7.65796644       0.00000000      12.08423447        1       0.36096457       0.00636058       0.00000201      -0.14397184
Cu       1.27632774       2.21066449      12.08423447        1       0.36096457      -0.00317855      -0.00550943      -0.14397184
Cu       3.82898322       2.21066449      12.08423447        1       0.35961782      -0.00002105      -0.00001216      -0.16036888
Cu       6.38163870       2.21066449      12.08423447        1       0.35961782       0.00002105      -0.00001216      -0.16036888
Cu       8.93429418       2.21066449      12.08423447        1       0.36096457       0.00317855      -0.00550943      -0.14397184
Cu       2.55265548       4.42132899      12.08423447        1       0.35965609      -0.00000002       0.00000001      -0.16062292
Cu       5.10531096       4.42132899      12.08423447        1       0.35961782       0.00000000       0.00002431      -0.16036888
Cu       7.65796644       4.42132899      12.08423447        1       0.35965609       0.00000002       0.00000001      -0.16062292
Cu      10.21062192       4.42132899      12.08423447        1       0.35961782       0.00000000      -0.00002467      -0.16036955
Cu       3.82898322       6.63199348      12.08423447        1       0.36096457       0.00318203       0.00550742      -0.14397184
Cu       6.38163870       6.63199348      12.08423447        1       0.36096457      -0.00318203       0.00550742      -0.14397184
Cu       8.93429418       6.63199348      12.08423447        1       0.35961782      -0.00002136       0.00001233      -0.16036955
Cu      11.48694966       6.63199348      12.08423447        1       0.35961782       0.00002136       0.00001233      -0.16036955
N        0.00000000      -0.00000000      15.16453526        0       0.08483698       0.00000000      -0.00000000       0.00861353
N        0.00000000       0.00000000      17.62479969        0       0.14191041       0.00000000      -0.00000000       0.00746122
N       -0.00000000       0.00000000      14.02291183        0      -0.35614934      -0.00000000       0.00000000       0.00425156
N       -0.00000000       0.00000000      16.58499384        0       0.12391712      -0.00000000       0.00000000      -0.01982265
